# vtk DataFile Version 3.0
vtk output
ASCII
DATASET UNSTRUCTURED_GRID
POINTS 672 double
0.000000e+00	2.000000e+00	2.000000e+00	0.000000e+00	2.000000e+00	4.000000e+00	0.000000e+00	1.966667e+00	2.000000e+00	0.000000e+00	1.966667e+00	4.000000e+00	1.285714e+00	2.000000e+00	2.000000e+00	1.285714e+00	2.000000e+00	4.000000e+00	1.285714e+00	1.966667e+00	2.000000e+00	1.285714e+00	1.966667e+00	4.000000e+00	0.000000e+00	2.000000e+00	0.000000e+00	0.000000e+00	2.000000e+00	2.000000e+00	0.000000e+00	1.966667e+00	0.000000e+00	0.000000e+00	1.966667e+00	2.000000e+00	1.285714e+00	2.000000e+00	0.000000e+00	1.285714e+00	2.000000e+00	2.000000e+00	1.285714e+00	1.966667e+00	0.000000e+00	1.285714e+00	1.966667e+00	2.000000e+00	1.285714e+00	2.000000e+00	2.000000e+00	1.285714e+00	2.000000e+00	4.000000e+00	1.285714e+00	1.966667e+00	2.000000e+00	1.285714e+00	1.966667e+00	4.000000e+00	2.571429e+00	2.000000e+00	2.000000e+00	2.571429e+00	2.000000e+00	4.000000e+00	2.571429e+00	1.966667e+00	2.000000e+00	2.571429e+00	1.966667e+00	4.000000e+00	1.285714e+00	2.000000e+00	0.000000e+00	1.285714e+00	2.000000e+00	2.000000e+00	1.285714e+00	1.966667e+00	0.000000e+00	1.285714e+00	1.966667e+00	2.000000e+00	2.571429e+00	2.000000e+00	0.000000e+00	2.571429e+00	2.000000e+00	2.000000e+00	2.571429e+00	1.966667e+00	0.000000e+00	2.571429e+00	1.966667e+00	2.000000e+00	2.571429e+00	2.000000e+00	2.000000e+00	2.571429e+00	2.000000e+00	4.000000e+00	2.571429e+00	1.966667e+00	2.000000e+00	2.571429e+00	1.966667e+00	4.000000e+00	3.857143e+00	2.000000e+00	2.000000e+00	3.857143e+00	2.000000e+00	4.000000e+00	3.857143e+00	1.966667e+00	2.000000e+00	3.857143e+00	1.966667e+00	4.000000e+00	2.571429e+00	2.000000e+00	0.000000e+00	2.571429e+00	2.000000e+00	2.000000e+00	2.571429e+00	1.966667e+00	0.000000e+00	2.571429e+00	1.966667e+00	2.000000e+00	3.857143e+00	2.000000e+00	0.000000e+00	3.857143e+00	2.000000e+00	2.000000e+00	3.857143e+00	1.966667e+00	0.000000e+00	3.857143e+00	1.966667e+00	2.000000e+00	3.857143e+00	2.000000e+00	2.000000e+00	3.857143e+00	2.000000e+00	4.000000e+00	3.857143e+00	1.966667e+00	2.000000e+00	3.857143e+00	1.966667e+00	4.000000e+00	5.142857e+00	2.000000e+00	2.000000e+00	5.142857e+00	2.000000e+00	4.000000e+00	5.142857e+00	1.966667e+00	2.000000e+00	5.142857e+00	1.966667e+00	4.000000e+00	3.857143e+00	2.000000e+00	0.000000e+00	3.857143e+00	2.000000e+00	2.000000e+00	3.857143e+00	1.966667e+00	0.000000e+00	3.857143e+00	1.966667e+00	2.000000e+00	5.142857e+00	2.000000e+00	0.000000e+00	5.142857e+00	2.000000e+00	2.000000e+00	5.142857e+00	1.966667e+00	0.000000e+00	5.142857e+00	1.966667e+00	2.000000e+00	5.142857e+00	2.000000e+00	2.000000e+00	5.142857e+00	2.000000e+00	4.000000e+00	5.142857e+00	1.966667e+00	2.000000e+00	5.142857e+00	1.966667e+00	4.000000e+00	6.428571e+00	2.000000e+00	2.000000e+00	6.428571e+00	2.000000e+00	4.000000e+00	6.428571e+00	1.966667e+00	2.000000e+00	6.428571e+00	1.966667e+00	4.000000e+00	5.142857e+00	2.000000e+00	0.000000e+00	5.142857e+00	2.000000e+00	2.000000e+00	5.142857e+00	1.966667e+00	0.000000e+00	5.142857e+00	1.966667e+00	2.000000e+00	6.428571e+00	2.000000e+00	0.000000e+00	6.428571e+00	2.000000e+00	2.000000e+00	6.428571e+00	1.966667e+00	0.000000e+00	6.428571e+00	1.966667e+00	2.000000e+00	6.428571e+00	2.000000e+00	2.000000e+00	6.428571e+00	2.000000e+00	4.000000e+00	6.428571e+00	1.966667e+00	2.000000e+00	6.428571e+00	1.966667e+00	4.000000e+00	7.714286e+00	2.000000e+00	2.000000e+00	7.714286e+00	2.000000e+00	4.000000e+00	7.714286e+00	1.966667e+00	2.000000e+00	7.714286e+00	1.966667e+00	4.000000e+00	6.428571e+00	2.000000e+00	0.000000e+00	6.428571e+00	2.000000e+00	2.000000e+00	6.428571e+00	1.966667e+00	0.000000e+00	6.428571e+00	1.966667e+00	2.000000e+00	7.714286e+00	2.000000e+00	0.000000e+00	7.714286e+00	2.000000e+00	2.000000e+00	7.714286e+00	1.966667e+00	0.000000e+00	7.714286e+00	1.966667e+00	2.000000e+00	7.714286e+00	2.000000e+00	2.000000e+00	7.714286e+00	2.000000e+00	4.000000e+00	7.714286e+00	1.966667e+00	2.000000e+00	7.714286e+00	1.966667e+00	4.000000e+00	9.000000e+00	2.000000e+00	2.000000e+00	9.000000e+00	2.000000e+00	4.000000e+00	9.000000e+00	1.966667e+00	2.000000e+00	9.000000e+00	1.966667e+00	4.000000e+00	7.714286e+00	2.000000e+00	0.000000e+00	7.714286e+00	2.000000e+00	2.000000e+00	7.714286e+00	1.966667e+00	0.000000e+00	7.714286e+00	1.966667e+00	2.000000e+00	9.000000e+00	2.000000e+00	0.000000e+00	9.000000e+00	2.000000e+00	2.000000e+00	9.000000e+00	1.966667e+00	0.000000e+00	9.000000e+00	1.966667e+00	2.000000e+00	0.000000e+00	1.966667e+00	2.000000e+00	0.000000e+00	1.966667e+00	4.000000e+00	0.000000e+00	1.800000e+00	2.000000e+00	0.000000e+00	1.800000e+00	4.000000e+00	1.285714e+00	1.966667e+00	2.000000e+00	1.285714e+00	1.966667e+00	4.000000e+00	1.285714e+00	1.800000e+00	2.000000e+00	1.285714e+00	1.800000e+00	4.000000e+00	0.000000e+00	1.966667e+00	0.000000e+00	0.000000e+00	1.966667e+00	2.000000e+00	0.000000e+00	1.800000e+00	0.000000e+00	0.000000e+00	1.800000e+00	2.000000e+00	1.285714e+00	1.966667e+00	0.000000e+00	1.285714e+00	1.966667e+00	2.000000e+00	1.285714e+00	1.800000e+00	0.000000e+00	1.285714e+00	1.800000e+00	2.000000e+00	1.285714e+00	1.966667e+00	2.000000e+00	1.285714e+00	1.966667e+00	4.000000e+00	1.285714e+00	1.800000e+00	2.000000e+00	1.285714e+00	1.800000e+00	4.000000e+00	2.571429e+00	1.966667e+00	2.000000e+00	2.571429e+00	1.966667e+00	4.000000e+00	2.571429e+00	1.800000e+00	2.000000e+00	2.571429e+00	1.800000e+00	4.000000e+00	1.285714e+00	1.966667e+00	0.000000e+00	1.285714e+00	1.966667e+00	2.000000e+00	1.285714e+00	1.800000e+00	0.000000e+00	1.285714e+00	1.800000e+00	2.000000e+00	2.571429e+00	1.966667e+00	0.000000e+00	2.571429e+00	1.966667e+00	2.000000e+00	2.571429e+00	1.800000e+00	0.000000e+00	2.571429e+00	1.800000e+00	2.000000e+00	2.571429e+00	1.966667e+00	2.000000e+00	2.571429e+00	1.966667e+00	4.000000e+00	2.571429e+00	1.800000e+00	2.000000e+00	2.571429e+00	1.800000e+00	4.000000e+00	3.857143e+00	1.966667e+00	2.000000e+00	3.857143e+00	1.966667e+00	4.000000e+00	3.857143e+00	1.800000e+00	2.000000e+00	3.857143e+00	1.800000e+00	4.000000e+00	2.571429e+00	1.966667e+00	0.000000e+00	2.571429e+00	1.966667e+00	2.000000e+00	2.571429e+00	1.800000e+00	0.000000e+00	2.571429e+00	1.800000e+00	2.000000e+00	3.857143e+00	1.966667e+00	0.000000e+00	3.857143e+00	1.966667e+00	2.000000e+00	3.857143e+00	1.800000e+00	0.000000e+00	3.857143e+00	1.800000e+00	2.000000e+00	3.857143e+00	1.966667e+00	2.000000e+00	3.857143e+00	1.966667e+00	4.000000e+00	3.857143e+00	1.800000e+00	2.000000e+00	3.857143e+00	1.800000e+00	4.000000e+00	5.142857e+00	1.966667e+00	2.000000e+00	5.142857e+00	1.966667e+00	4.000000e+00	5.142857e+00	1.800000e+00	2.000000e+00	5.142857e+00	1.800000e+00	4.000000e+00	3.857143e+00	1.966667e+00	0.000000e+00	3.857143e+00	1.966667e+00	2.000000e+00	3.857143e+00	1.800000e+00	0.000000e+00	3.857143e+00	1.800000e+00	2.000000e+00	5.142857e+00	1.966667e+00	0.000000e+00	5.142857e+00	1.966667e+00	2.000000e+00	5.142857e+00	1.800000e+00	0.000000e+00	5.142857e+00	1.800000e+00	2.000000e+00	5.142857e+00	1.966667e+00	2.000000e+00	5.142857e+00	1.966667e+00	4.000000e+00	5.142857e+00	1.800000e+00	2.000000e+00	5.142857e+00	1.800000e+00	4.000000e+00	6.428571e+00	1.966667e+00	2.000000e+00	6.428571e+00	1.966667e+00	4.000000e+00	6.428571e+00	1.800000e+00	2.000000e+00	6.428571e+00	1.800000e+00	4.000000e+00	5.142857e+00	1.966667e+00	0.000000e+00	5.142857e+00	1.966667e+00	2.000000e+00	5.142857e+00	1.800000e+00	0.000000e+00	5.142857e+00	1.800000e+00	2.000000e+00	6.428571e+00	1.966667e+00	0.000000e+00	6.428571e+00	1.966667e+00	2.000000e+00	6.428571e+00	1.800000e+00	0.000000e+00	6.428571e+00	1.800000e+00	2.000000e+00	6.428571e+00	1.966667e+00	2.000000e+00	6.428571e+00	1.966667e+00	4.000000e+00	6.428571e+00	1.800000e+00	2.000000e+00	6.428571e+00	1.800000e+00	4.000000e+00	7.714286e+00	1.966667e+00	2.000000e+00	7.714286e+00	1.966667e+00	4.000000e+00	7.714286e+00	1.800000e+00	2.000000e+00	7.714286e+00	1.800000e+00	4.000000e+00	6.428571e+00	1.966667e+00	0.000000e+00	6.428571e+00	1.966667e+00	2.000000e+00	6.428571e+00	1.800000e+00	0.000000e+00	6.428571e+00	1.800000e+00	2.000000e+00	7.714286e+00	1.966667e+00	0.000000e+00	7.714286e+00	1.966667e+00	2.000000e+00	7.714286e+00	1.800000e+00	0.000000e+00	7.714286e+00	1.800000e+00	2.000000e+00	7.714286e+00	1.966667e+00	2.000000e+00	7.714286e+00	1.966667e+00	4.000000e+00	7.714286e+00	1.800000e+00	2.000000e+00	7.714286e+00	1.800000e+00	4.000000e+00	9.000000e+00	1.966667e+00	2.000000e+00	9.000000e+00	1.966667e+00	4.000000e+00	9.000000e+00	1.800000e+00	2.000000e+00	9.000000e+00	1.800000e+00	4.000000e+00	7.714286e+00	1.966667e+00	0.000000e+00	7.714286e+00	1.966667e+00	2.000000e+00	7.714286e+00	1.800000e+00	0.000000e+00	7.714286e+00	1.800000e+00	2.000000e+00	9.000000e+00	1.966667e+00	0.000000e+00	9.000000e+00	1.966667e+00	2.000000e+00	9.000000e+00	1.800000e+00	0.000000e+00	9.000000e+00	1.800000e+00	2.000000e+00	0.000000e+00	1.800000e+00	2.000000e+00	0.000000e+00	1.800000e+00	4.000000e+00	0.000000e+00	1.000000e+00	2.000000e+00	0.000000e+00	1.000000e+00	4.000000e+00	1.285714e+00	1.800000e+00	2.000000e+00	1.285714e+00	1.800000e+00	4.000000e+00	1.285714e+00	1.000000e+00	2.000000e+00	1.285714e+00	1.000000e+00	4.000000e+00	0.000000e+00	1.800000e+00	0.000000e+00	0.000000e+00	1.800000e+00	2.000000e+00	0.000000e+00	1.000000e+00	0.000000e+00	0.000000e+00	1.000000e+00	2.000000e+00	1.285714e+00	1.800000e+00	0.000000e+00	1.285714e+00	1.800000e+00	2.000000e+00	1.285714e+00	1.000000e+00	0.000000e+00	1.285714e+00	1.000000e+00	2.000000e+00	1.285714e+00	1.800000e+00	2.000000e+00	1.285714e+00	1.800000e+00	4.000000e+00	1.285714e+00	1.000000e+00	2.000000e+00	1.285714e+00	1.000000e+00	4.000000e+00	2.571429e+00	1.800000e+00	2.000000e+00	2.571429e+00	1.800000e+00	4.000000e+00	2.571429e+00	1.000000e+00	2.000000e+00	2.571429e+00	1.000000e+00	4.000000e+00	1.285714e+00	1.800000e+00	0.000000e+00	1.285714e+00	1.800000e+00	2.000000e+00	1.285714e+00	1.000000e+00	0.000000e+00	1.285714e+00	1.000000e+00	2.000000e+00	2.571429e+00	1.800000e+00	0.000000e+00	2.571429e+00	1.800000e+00	2.000000e+00	2.5714
[...]
POINT_DATA 672

SCALARS Density double 1
LOOKUP_TABLE default
1.577414e-03	1.577414e-03	1.577414e-03	1.577414e-03	1.577414e-03	1.577414e-03	1.577415e-03	1.577415e-03	1.577414e-03	1.577414e-03	1.577414e-03	1.577414e-03	1.577414e-03	1.577414e-03	1.577415e-03	1.577415e-03	1.577414e-03	1.577414e-03	1.577414e-03	1.577414e-03	1.577414e-03	1.577414e-03	1.577415e-03	1.577415e-03	1.577414e-03	1.577414e-03	1.577414e-03	1.577414e-03	1.577414e-03	1.577414e-03	1.577415e-03	1.577415e-03	1.577414e-03	1.577414e-03	1.577414e-03	1.577414e-03	1.577414e-03	1.577414e-03	1.577415e-03	1.577415e-03	1.577414e-03	1.577414e-03	1.577414e-03	1.577414e-03	1.577414e-03	1.577414e-03	1.577415e-03	1.577415e-03	1.577414e-03	1.577414e-03	1.577414e-03	1.577414e-03	1.577414e-03	1.577414e-03	1.577415e-03	1.577415e-03	1.577414e-03	1.577414e-03	1.577414e-03	1.577414e-03	1.577414e-03	1.577414e-03	1.577415e-03	1.577415e-03	1.577414e-03	1.577414e-03	1.577414e-03	1.577414e-03	1.577414e-03	1.577414e-03	1.577415e-03	1.577415e-03	1.577414e-03	1.577414e-03	1.577414e-03	1.577414e-03	1.577414e-03	1.577414e-03	1.577415e-03	1.577415e-03	1.577414e-03	1.577414e-03	1.577414e-03	1.577414e-03	1.577414e-03	1.577414e-03	1.577415e-03	1.577415e-03	1.577414e-03	1.577414e-03	1.577414e-03	1.577414e-03	1.577414e-03	1.577414e-03	1.577415e-03	1.577415e-03	1.577414e-03	1.577414e-03	1.577414e-03	1.577414e-03	1.577414e-03	1.577414e-03	1.577415e-03	1.577415e-03	1.577414e-03	1.577414e-03	1.577414e-03	1.577414e-03	1.577414e-03	1.577414e-03	1.577415e-03	1.577415e-03	1.577414e-03	1.577414e-03	1.577414e-03	1.577414e-03	1.577414e-03	1.577414e-03	1.577414e-03	1.577414e-03	1.577414e-03	1.577414e-03	1.577414e-03	1.577414e-03	1.577414e-03	1.577414e-03	1.577414e-03	1.577414e-03	1.577414e-03	1.577414e-03	1.577414e-03	1.577414e-03	1.577414e-03	1.577414e-03	1.577414e-03	1.577414e-03	1.577414e-03	1.577414e-03	1.577414e-03	1.577414e-03	1.577414e-03	1.577414e-03	1.577414e-03	1.577414e-03	1.577414e-03	1.577414e-03	1.577414e-03	1.577414e-03	1.577414e-03	1.577414e-03	1.577414e-03	1.577414e-03	1.577414e-03	1.577414e-03	1.577414e-03	1.577414e-03	1.577414e-03	1.577414e-03	1.577414e-03	1.577414e-03	1.577414e-03	1.577414e-03	1.577414e-03	1.577414e-03	1.577414e-03	1.577414e-03	1.577414e-03	1.577414e-03	1.577414e-03	1.577414e-03	1.577414e-03	1.577414e-03	1.577414e-03	1.577414e-03	1.577414e-03	1.577414e-03	1.577414e-03	1.577414e-03	1.577414e-03	1.577414e-03	1.577414e-03	1.577414e-03	1.577414e-03	1.577414e-03	1.577414e-03	1.577414e-03	1.577414e-03	1.577414e-03	1.577414e-03	1.577414e-03	1.577414e-03	1.577414e-03	1.577414e-03	1.577414e-03	1.577414e-03	1.577414e-03	1.577414e-03	1.577414e-03	1.577414e-03	1.577414e-03	1.577414e-03	1.577414e-03	1.577414e-03	1.577414e-03	1.577414e-03	1.577414e-03	1.577414e-03	1.577414e-03	1.577414e-03	1.577414e-03	1.577414e-03	1.577414e-03	1.577414e-03	1.577414e-03	1.577414e-03	1.577414e-03	1.577414e-03	1.577414e-03	1.577414e-03	1.577414e-03	1.577414e-03	1.577414e-03	1.577414e-03	1.577414e-03	1.577414e-03	1.577414e-03	1.577414e-03	1.577414e-03	1.577414e-03	1.577414e-03	1.577414e-03	1.577414e-03	1.577414e-03	1.577414e-03	1.577414e-03	1.577414e-03	1.577414e-03	1.577414e-03	1.577414e-03	1.577414e-03	1.577414e-03	1.577414e-03	1.577414e-03	1.577414e-03	1.577414e-03	1.577414e-03	1.577414e-03	1.577414e-03	1.577414e-03	1.577414e-03	1.577414e-03	1.577414e-03	1.577414e-03	1.577414e-03	1.577414e-03	1.577414e-03	1.577414e-03	1.577414e-03	1.577414e-03	1.577414e-03	1.577414e-03	1.577414e-03	1.577414e-03	1.577414e-03	1.577414e-03	1.577414e-03	1.577414e-03	1.577414e-03	1.577414e-03	1.577414e-03	1.577414e-03	1.577414e-03	1.577414e-03	1.577414e-03	1.577414e-03	1.577414e-03	1.577414e-03	1.577414e-03	1.577414e-03	1.577414e-03	1.577414e-03	1.577414e-03	1.577414e-03	1.577414e-03	1.577414e-03	1.577414e-03	1.577414e-03	1.577414e-03	1.577414e-03	1.577414e-03	1.577414e-03	1.577414e-03	1.577414e-03	1.577414e-03	1.577414e-03	1.577414e-03	1.577414e-03	1.577414e-03	1.577414e-03	1.577414e-03	1.577414e-03	1.577414e-03	1.577414e-03	1.577414e-03	1.577414e-03	1.577414e-03	1.577414e-03	1.577414e-03	1.577414e-03	1.577414e-03	1.577414e-03	1.577414e-03	1.577414e-03	1.577414e-03	1.577414e-03	1.577414e-03	1.577414e-03	1.577414e-03	1.577414e-03	1.577414e-03	1.577414e-03	1.577414e-03	1.577414e-03	1.577414e-03	1.577414e-03	1.577414e-03	1.577414e-03	1.577414e-03	1.577414e-03	1.577414e-03	1.577414e-03	1.577414e-03	1.577414e-03	1.577414e-03	1.577414e-03	1.577414e-03	1.577414e-03	1.577414e-03	1.577414e-03	1.577414e-03	1.577414e-03	1.577414e-03	1.577414e-03	1.577414e-03	1.577414e-03	1.577414e-03	1.577414e-03	1.577414e-03	1.577414e-03	1.577414e-03	1.577414e-03	1.577414e-03	1.577414e-03	1.577414e-03	1.577414e-03	1.577414e-03	1.577414e-03	1.577414e-03	1.577414e-03	1.577414e-03	1.577414e-03	1.577414e-03	1.577414e-03	1.577414e-03	1.577414e-03	1.577414e-03	1.577414e-03	1.577414e-03	1.577414e-03	1.577414e-03	1.577414e-03	1.577414e-03	1.577414e-03	1.577414e-03	1.577414e-03	1.577414e-03	1.577414e-03	1.577414e-03	1.577414e-03	1.577414e-03	1.577414e-03	1.577414e-03	1.577414e-03	1.577414e-03	1.577414e-03	1.577414e-03	1.577414e-03	1.577414e-03	1.577414e-03	1.577414e-03	1.577414e-03	1.577414e-03	1.577414e-03	1.577414e-03	1.577414e-03	1.577414e-03	1.577414e-03	1.577414e-03	1.577414e-03	1.577414e-03	1.577414e-03	1.577414e-03	1.577414e-03	1.577414e-03	1.577414e-03	1.577414e-03	1.577414e-03	1.577414e-03	1.577414e-03	1.577414e-03	1.577414e-03	1.577414e-03	1.577414e-03	1.577414e-03	1.577414e-03	1.577414e-03	1.577414e-03	1.577414e-03	1.577414e-03	1.577414e-03	1.577414e-03	1.577414e-03	1.577414e-03	1.577414e-03	1.577414e-03	1.577414e-03	1.577414e-03	1.577414e-03	1.577414e-03	1.577414e-03	1.577414e-03	1.577414e-03	1.577414e-03	1.577414e-03	1.577414e-03	1.577414e-03	1.577414e-03	1.577414e-03	1.577414e-03	1.577414e-03	1.577414e-03	1.577414e-03	1.577414e-03	1.577414e-03	1.577414e-03	1.577414e-03	1.577414e-03	1.577414e-03	1.577414e-03	1.577414e-03	1.577414e-03	1.577414e-03	1.577414e-03	1.577414e-03	1.577414e-03	1.577414e-03	1.577414e-03	1.577414e-03	1.577414e-03	1.577414e-03	1.577414e-03	1.577414e-03	1.577414e-03	1.577414e-03	1.577414e-03	1.577414e-03	1.577414e-03	1.577414e-03	1.577414e-03	1.577414e-03	1.577414e-03	1.577414e-03	1.577414e-03	1.577414e-03	1.577414e-03	1.577414e-03	1.577414e-03	1.577414e-03	1.577414e-03	1.577414e-03	1.577414e-03	1.577414e-03	1.577414e-03	1.577414e-03	1.577414e-03	1.577414e-03	1.577414e-03	1.577414e-03	1.577414e-03	1.577414e-03	1.577414e-03	1.577414e-03	1.577414e-03	1.577414e-03	1.577414e-03	1.577414e-03	1.577414e-03	1.577414e-03	1.577414e-03	1.577414e-03	1.577414e-03	1.577414e-03	1.577414e-03	1.577414e-03	1.577414e-03	1.577414e-03	1.577414e-03	1.577414e-03	1.577414e-03	1.577414e-03	1.577414e-03	1.577414e-03	1.577414e-03	1.577414e-03	1.577414e-03	1.577414e-03	1.577414e-03	1.577414e-03	1.577414e-03	1.577414e-03	1.577414e-03	1.577414e-03	1.577414e-03	1.577414e-03	1.577414e-03	1.577414e-03	1.577414e-03	1.577414e-03	1.577414e-03	1.577414e-03	1.577414e-03	1.577414e-03	1.577414e-03	1.577414e-03	1.577414e-03	1.577414e-03	1.577414e-03	1.577414e-03	1.577414e-03	1.577414e-03	1.577414e-03	1.577414e-03	1.577414e-03	1.577414e-03	1.577414e-03	1.577414e-03	1.577414e-03	1.577414e-03	1.577414e-03	1.577414e-03	1.577414e-03	1.577414e-03	1.577414e-03	1.577414e-03	1.577414e-03	1.577414e-03	1.577414e-03	1.577414e-03	1.577414e-03	1.577414e-03	1.577414e-03	1.577414e-03	1.577414e-03	1.577414e-03	1.577415e-03	1.577415e-03	1.577414e-03	1.577414e-03	1.577414e-03	1.577414e-03	1.577414e-03	1.577414e-03	1.577415e-03	1.577415e-03	1.577414e-03	1.577414e-03	1.577414e-03	1.577414e-03	1.577414e-03	1.577414e-03	1.577415e-03	1.577415e-03	1.577414e-03	1.577414e-03	1.577414e-03	1.577414e-03	1.577414e-03	1.577414e-03	1.577415e-03	1.577415e-03	1.577414e-03	1.577414e-03	1.577414e-03	1.577414e-03	1.577414e-03	1.577414e-03	1.577415e-03	1.577415e-03	1.577414e-03	1.577414e-03	1.577414e-03	1.577414e-03	1.577414e-03	1.577414e-03	1.577415e-03	1.577415e-03	1.577414e-03	1.577414e-03	1.577414e-03	1.577414e-03	1.577414e-03	1.577414e-03	1.577415e-03	1.577415e-03	1.577414e-03	1.577414e-03	1.577414e-03	1.577414e-03	1.577414e-03	1.577414e-03	1.577415e-03	1.577415e-03	1.577414e-03	1.577414e-03	1.577414e-03	1.577414e-03	1.577414e-03	1.577414e-03	1.577415e-03	1.577415e-03	1.577414e-03	1.577414e-03	1.577414e-03	1.577414e-03	1.577414e-03	1.577414e-03	1.577415e-03	1.577415e-03	1.577414e-03	1.577414e-03	1.577414e-03	1.577414e-03	1.577414e-03	1.577414e-03	1.577415e-03	1.577415e-03	1.577414e-03	1.577414e-03	1.577414e-03	1.577414e-03	1.577414e-03	1.577414e-03	1.577415e-03	1.577415e-03	1.577414e-03	1.577414e-03	1.577414e-03	1.577414e-03	1.577414e-03	1.577414e-03	1.577415e-03	1.577415e-03	1.577414e-03	1.577414e-03	1.577414e-03	1.577414e-03	1.577414e-03	1.577414e-03	1.577415e-03	1.577415e-03	1.577414e-03	1.577414e-03	
SCALARS X-Momentum double 1
LOOKUP_TABLE default
1.072456e-01	1.072456e-01	1.074132e-01	1.074132e-01	1.072456e-01	1.072456e-01	1.074132e-01	1.074132e-01	1.072456e-01	1.072456e-01	1.074132e-01	1.074132e-01	1.072456e-01	1.072456e-01	1.074132e-01	1.074132e-01	1.072456e-01	1.072456e-01	1.074132e-01	1.074132e-01	1.072456e-01	1.072456e-01	1.074132e-01	1.074132e-01	1.072456e-01	1.072456e-01	1.074132e-01	1.074132e-01	1.072456e-01	1.072456e-01	1.074132e-01	1.074132e-01	1.072456e-01	1.072456e-01	1.074132e-01	1.074132e-01	1.072456e-01	1.072456e-01	1.074132e-01	1.074132e-01	1.072456e-01	1.072456e-01	1.074132e-01	1.074132e-01	1.072456e-01	1.072456e-01	1.074132e-01	1.074132e-01	1.072456e-01	1.072456e-01	1.074132e-01	1.074132e-01	1.072456e-01	1.072456e-01	1.074132e-01	1.074132e-01	1.072456e-01	1.072456e-01	1.074132e-01	1.074132e-01	1.072456e-01	1.072456e-01	1.074132e-01	1.074132e-01	1.072456e-01	1.072456e-01	1.074132e-01	1.074132e-01	1.072456e-01	1.072456e-01	1.074132e-01	1.074132e-01	1.072456e-01	1.072456e-01	1.074132e-01	1.074132e-01	1.072456e-01	1.072456e-01	1.074132e-01	1.074132e-01	1.072456e-01	1.072456e-01	1.074132e-01	1.074132e-01	1.072456e-01	1.072456e-01	1.074132e-01	1.074132e-01	1.072456e-01	1.072456e-01	1.074132e-01	1.074132e-01	1.072456e-01	1.072456e-01	1.074132e-01	1.074132e-01	1.072456e-01	1.072456e-01	1.074132e-01	1.074132e-01	1.072456e-01	1.072456e-01	1.074132e-01	1.074132e-01	1.072456e-01	1.072456e-01	1.074132e-01	1.074132e-01	1.072456e-01	1.072456e-01	1.074132e-01	1.074132e-01	1.073631e-01	1.073631e-01	1.073631e-01	1.073631e-01	1.073631e-01	1.073631e-01	1.073631e-01	1.073631e-01	1.073631e-01	1.073631e-01	1.073631e-01	1.073631e-01	1.073631e-01	1.073631e-01	1.073631e-01	1.073631e-01	1.073631e-01	1.073631e-01	1.073631e-01	1.073631e-01	1.073631e-01	1.073631e-01	1.073631e-01	1.073631e-01	1.073631e-01	1.073631e-01	1.073631e-01	1.073631e-01	1.073631e-01	1.073631e-01	1.073631e-01	1.073631e-01	1.073631e-01	1.073631e-01	1.073631e-01	1.073631e-01	1.073631e-01	1.073631e-01	1.073631e-01	1.073631e-01	1.073631e-01	1.073631e-01	1.073631e-01	1.073631e-01	1.073631e-01	1.073631e-01	1.073631e-01	1.073631e-01	1.073631e-01	1.073631e-01	1.073631e-01	1.073631e-01	1.073631e-01	1.073631e-01	1.073631e-01	1.073631e-01	1.073631e-01	1.073631e-01	1.073631e-01	1.073631e-01	1.073631e-01	1.073631e-01	1.073631e-01	1.073631e-01	1.073631e-01	1.073631e-01	1.073631e-01	1.073631e-01	1.073631e-01	1.073631e-01	1.073631e-01	1.073631e-01	1.073631e-01	1.073631e-01	1.073631e-01	1.073631e-01	1.073631e-01	1.073631e-01	1.073631e-01	1.073631e-01	1.073631e-01	1.073631e-01	1.073631e-01	1.073631e-01	1.073631e-01	1.073631e-01	1.073631e-01	1.073631e-01	1.073631e-01	1.073631e-01	1.073631e-01	1.073631e-01	1.073631e-01	1.073631e-01	1.073631e-01	1.073631e-01	1.073631e-01	1.073631e-01	1.073631e-01	1.073631e-01	1.073631e-01	1.073631e-01	1.073631e-01	1.073631e-01	1.073631e-01	1.073631e-01	1.073631e-01	1.073631e-01	1.073631e-01	1.073631e-01	1.073631e-01	1.073631e-01	1.073631e-01	1.073631e-01	1.073631e-01	1.073631e-01	1.073631e-01	1.073631e-01	1.073631e-01	1.073631e-01	1.073631e-01	1.073631e-01	1.073631e-01	1.073631e-01	1.073631e-01	1.073631e-01	1.073631e-01	1.073631e-01	1.073631e-01	1.073631e-01	1.073631e-01	1.073631e-01	1.073631e-01	1.073631e-01	1.073631e-01	1.073631e-01	1.073631e-01	1.073631e-01	1.073631e-01	1.073631e-01	1.073631e-01	1.073631e-01	1.073631e-01	1.073631e-01	1.073631e-01	1.073631e-01	1.073631e-01	1.073631e-01	1.073631e-01	1.073631e-01	1.073631e-01	1.073631e-01	1.073631e-01	1.073631e-01	1.073631e-01	1.073631e-01	1.073631e-01	1.073631e-01	1.073631e-01	1.073631e-01	1.073631e-01	1.073631e-01	1.073631e-01	1.073631e-01	1.073631e-01	1.073631e-01	1.073631e-01	1.073631e-01	1.073631e-01	1.073631e-01	1.073631e-01	1.073631e-01	1.073631e-01	1.073631e-01	1.073631e-01	1.073631e-01	1.073631e-01	1.073631e-01	1.073631e-01	1.073631e-01	1.073631e-01	1.073631e-01	1.073631e-01	1.073631e-01	1.073631e-01	1.073631e-01	1.073631e-01	1.073631e-01	1.073631e-01	1.073631e-01	1.073631e-01	1.073631e-01	1.073631e-01	1.073631e-01	1.073631e-01	1.073631e-01	1.073631e-01	1.073631e-01	1.073631e-01	1.073631e-01	1.073631e-01	1.073631e-01	1.073631e-01	1.073631e-01	1.073631e-01	1.073631e-01	1.073631e-01	1.073631e-01	1.073631e-01	1.073631e-01	1.073631e-01	1.073631e-01	1.073631e-01	1.073631e-01	1.073631e-01	1.073631e-01	1.073631e-01	1.073631e-01	1.073631e-01	1.073631e-01	1.073631e-01	1.073631e-01	1.073631e-01	1.073631e-01	1.073631e-01	1.073631e-01	1.073631e-01	1.073631e-01	1.073631e-01	1.073631e-01	1.073631e-01	1.073631e-01	1.073631e-01	1.073631e-01	1.073631e-01	1.073631e-01	1.073631e-01	1.073631e-01	1.073631e-01	1.073631e-01	1.073631e-01	1.073631e-01	1.073631e-01	1.073631e-01	1.073631e-01	1.073631e-01	1.073631e-01	1.073631e-01	1.073631e-01	1.073631e-01	1.073631e-01	1.073631e-01	1.073631e-01	1.073631e-01	1.073631e-01	1.073631e-01	1.073631e-01	1.073631e-01	1.073631e-01	1.073631e-01	1.073631e-01	1.073631e-01	1.073631e-01	1.073631e-01	1.073631e-01	1.073631e-01	1.073631e-01	1.073631e-01	1.073631e-01	1.073631e-01	1.073631e-01	1.073631e-01	1.073631e-01	1.073631e-01	1.073631e-01	1.073631e-01	1.073631e-01	1.073631e-01	1.073631e-01	1.073631e-01	1.073631e-01	1.073631e-01	1.073631e-01	1.073631e-01	1.073631e-01	1.073631e-01	1.073631e-01	1.073631e-01	1.073631e-01	1.073631e-01	1.073631e-01	1.073631e-01	1.073631e-01	1.073631e-01	1.073631e-01	1.073631e-01	1.073631e-01	1.073631e-01	1.073631e-01	1.073631e-01	1.073631e-01	1.073631e-01	1.073631e-01	1.073631e-01	1.073631e-01	1.073631e-01	1.073631e-01	1.073631e-01	1.073631e-01	1.073631e-01	1.073631e-01	1.073631e-01	1.073631e-01	1.073631e-01	1.073631e-01	1.073631e-01	1.073631e-01	1.073631e-01	1.073631e-01	1.073631e-01	1.073631e-01	1.073631e-01	1.073631e-01	1.073631e-01	1.073631e-01	1.073631e-01	1.073631e-01	1.073631e-01	1.073631e-01	1.073631e-01	1.073631e-01	1.073631e-01	1.073631e-01	1.073631e-01	1.073631e-01	1.073631e-01	1.073631e-01	1.073631e-01	1.073631e-01	1.073631e-01	1.073631e-01	1.073631e-01	1.073631e-01	1.073631e-01	1.073631e-01	1.073631e-01	1.073631e-01	1.073631e-01	1.073631e-01	1.073631e-01	1.073631e-01	1.073631e-01	1.073631e-01	1.073631e-01	1.073631e-01	1.073631e-01	1.073631e-01	1.073631e-01	1.073631e-01	1.073631e-01	1.073631e-01	1.073631e-01	1.073631e-01	1.073631e-01	1.073631e-01	1.073631e-01	1.073631e-01	1.073631e-01	1.073631e-01	1.073631e-01	1.073631e-01	1.073631e-01	1.073631e-01	1.073631e-01	1.073631e-01	1.073631e-01	1.073631e-01	1.073631e-01	1.073631e-01	1.073631e-01	1.073631e-01	1.073631e-01	1.073631e-01	1.073631e-01	1.073631e-01	1.073631e-01	1.073631e-01	1.073631e-01	1.073631e-01	1.073631e-01	1.073631e-01	1.073631e-01	1.073631e-01	1.073631e-01	1.073631e-01	1.073631e-01	1.073631e-01	1.073631e-01	1.073631e-01	1.073631e-01	1.073631e-01	1.073631e-01	1.073631e-01	1.073631e-01	1.073631e-01	1.073631e-01	1.073631e-01	1.073631e-01	1.073631e-01	1.073631e-01	1.073631e-01	1.073631e-01	1.073631e-01	1.073631e-01	1.073631e-01	1.073631e-01	1.073631e-01	1.073631e-01	1.073631e-01	1.073631e-01	1.073631e-01	1.073631e-01	1.073631e-01	1.073631e-01	1.073631e-01	1.073631e-01	1.073631e-01	1.073631e-01	1.073631e-01	1.073631e-01	1.073631e-01	1.073631e-01	1.073631e-01	1.073631e-01	1.073631e-01	1.073631e-01	1.073631e-01	1.073631e-01	1.073631e-01	1.073631e-01	1.073631e-01	1.073631e-01	1.073631e-01	1.073631e-01	1.073631e-01	1.073631e-01	1.073631e-01	1.073631e-01	1.074132e-01	1.074132e-01	1.072456e-01	1.072456e-01	1.074132e-01	1.074132e-01	1.072456e-01	1.072456e-01	1.074132e-01	1.074132e-01	1.072456e-01	1.072456e-01	1.074132e-01	1.074132e-01	1.072456e-01	1.072456e-01	1.074132e-01	1.074132e-01	1.072456e-01	1.072456e-01	1.074132e-01	1.074132e-01	1.072456e-01	1.072456e-01	1.074132e-01	1.074132e-01	1.072456e-01	1.072456e-01	1.074132e-01	1.074132e-01	1.072456e-01	1.072456e-01	1.074132e-01	1.074132e-01	1.072456e-01	1.072456e-01	1.074132e-01	1.074132e-01	1.072456e-01	1.072456e-01	1.074132e-01	1.074132e-01	1.072456e-01	1.072456e-01	1.074132e-01	1.074132e-01	1.072456e-01	1.072456e-01	1.074132e-01	1.074132e-01	1.072456e-01	1.072456e-01	1.074132e-01	1.074132e-01	1.072456e-01	1.072456e-01	1.074132e-01	1.074132e-01	1.072456e-01	1.072456e-01	1.074132e-01	1.074132e-01	1.072456e-01	1.072456e-01	1.074132e-01	1.074132e-01	1.072456e-01	1.072456e-01	1.074132e-01	1.074132e-01	1.072456e-01	1.072456e-01	1.074132e-01	1.074132e-01	1.072456e-01	1.072456e-01	1.074132e-01	1.074132e-01	1.072456e-01	1.072456e-01	1.074132e-01	1.074132e-01	1.072456e-01	1.072456e-01	1.074132e-01	1.074132e-01	1.072456e-01	1.072456e-01	1.074132e-01	1.074132e-01	1.072456e-01	1.072456e-01	1.074132e-01	1.074132e-01	1.072456e-01	1.072456e-01	1.074132e-01	1.074132e-01	1.072456e-01	1.072456e-01	1.074132e-01	1.074132e-01	1.072456e-01	1.072456e-01	1.074132e-01	1.074132e-01	1.072456e-01	1.072456e-01	1.074132e-01	1.074132e-01	1.072456e-01	1.072456e-01	
SCALARS Y-Momentum double 1
LOOKUP_TABLE default