# vtk DataFile Version 3.0
vtk output
ASCII
DATASET UNSTRUCTURED_GRID
POINTS 56 double
0.000000e+00	0.000000e+00	2.000000e+00	0.000000e+00	0.000000e+00	4.000000e+00	1.285714e+00	0.000000e+00	2.000000e+00	1.285714e+00	0.000000e+00	4.000000e+00	0.000000e+00	0.000000e+00	0.000000e+00	0.000000e+00	0.000000e+00	2.000000e+00	1.285714e+00	0.000000e+00	0.000000e+00	1.285714e+00	0.000000e+00	2.000000e+00	1.285714e+00	0.000000e+00	2.000000e+00	1.285714e+00	0.000000e+00	4.000000e+00	2.571429e+00	0.000000e+00	2.000000e+00	2.571429e+00	0.000000e+00	4.000000e+00	1.285714e+00	0.000000e+00	0.000000e+00	1.285714e+00	0.000000e+00	2.000000e+00	2.571429e+00	0.000000e+00	0.000000e+00	2.571429e+00	0.000000e+00	2.000000e+00	2.571429e+00	0.000000e+00	2.000000e+00	2.571429e+00	0.000000e+00	4.000000e+00	3.857143e+00	0.000000e+00	2.000000e+00	3.857143e+00	0.000000e+00	4.000000e+00	2.571429e+00	0.000000e+00	0.000000e+00	2.571429e+00	0.000000e+00	2.000000e+00	3.857143e+00	0.000000e+00	0.000000e+00	3.857143e+00	0.000000e+00	2.000000e+00	3.857143e+00	0.000000e+00	2.000000e+00	3.857143e+00	0.000000e+00	4.000000e+00	5.142857e+00	0.000000e+00	2.000000e+00	5.142857e+00	0.000000e+00	4.000000e+00	3.857143e+00	0.000000e+00	0.000000e+00	3.857143e+00	0.000000e+00	2.000000e+00	5.142857e+00	0.000000e+00	0.000000e+00	5.142857e+00	0.000000e+00	2.000000e+00	5.142857e+00	0.000000e+00	2.000000e+00	5.142857e+00	0.000000e+00	4.000000e+00	6.428571e+00	0.000000e+00	2.000000e+00	6.428571e+00	0.000000e+00	4.000000e+00	5.142857e+00	0.000000e+00	0.000000e+00	5.142857e+00	0.000000e+00	2.000000e+00	6.428571e+00	0.000000e+00	0.000000e+00	6.428571e+00	0.000000e+00	2.000000e+00	6.428571e+00	0.000000e+00	2.000000e+00	6.428571e+00	0.000000e+00	4.000000e+00	7.714286e+00	0.000000e+00	2.000000e+00	7.714286e+00	0.000000e+00	4.000000e+00	6.428571e+00	0.000000e+00	0.000000e+00	6.428571e+00	0.000000e+00	2.000000e+00	7.714286e+00	0.000000e+00	0.000000e+00	7.714286e+00	0.000000e+00	2.000000e+00	7.714286e+00	0.000000e+00	2.000000e+00	7.714286e+00	0.000000e+00	4.000000e+00	9.000000e+00	0.000000e+00	2.000000e+00	9.000000e+00	0.000000e+00	4.000000e+00	7.714286e+00	0.000000e+00	0.000000e+00	7.714286e+00	0.000000e+00	2.000000e+00	9.000000e+00	0.000000e+00	0.000000e+00	9.000000e+00	0.000000e+00	2.000000e+00	
CELLS 14	70
4	49	51	50	48	4	41	43	42	40	4	33	35	34	32	4	25	27	26	24	4	17	19	18	16	4	9	11	10	8	4	55	54	52	53	4	47	46	44	45	4	39	38	36	37	4	31	30	28	29	4	23	22	20	21	4	1	3	2	0	4	15	14	12	13	4	7	6	4	5	
CELL_TYPES 14
9	9	9	9	9	9	9	9	9	9	9	9	9	9	
POINT_DATA 56

SCALARS Density double 1
LOOKUP_TABLE default
1.577414e-03	1.577414e-03	1.577414e-03	1.577414e-03	1.577414e-03	1.577414e-03	1.577414e-03	1.577414e-03	1.577414e-03	1.577414e-03	1.577414e-03	1.577414e-03	1.577414e-03	1.577414e-03	1.577414e-03	1.577414e-03	1.577414e-03	1.577414e-03	1.577414e-03	1.577414e-03	1.577414e-03	1.577414e-03	1.577414e-03	1.577414e-03	1.577414e-03	1.577414e-03	1.577414e-03	1.577414e-03	1.577414e-03	1.577414e-03	1.577414e-03	1.577414e-03	1.577414e-03	1.577414e-03	1.577414e-03	1.577414e-03	1.577414e-03	1.577414e-03	1.577414e-03	1.577414e-03	1.577414e-03	1.577414e-03	1.577414e-03	1.577414e-03	1.577414e-03	1.577414e-03	1.577414e-03	1.577414e-03	1.577414e-03	1.577414e-03	1.577414e-03	1.577414e-03	1.577414e-03	1.577414e-03	1.577414e-03	1.577414e-03	
SCALARS X-Momentum double 1
LOOKUP_TABLE default
1.072456e-01	1.072456e-01	1.072456e-01	1.072456e-01	1.072456e-01	1.072456e-01	1.072456e-01	1.072456e-01	1.072456e-01	1.072456e-01	1.072456e-01	1.072456e-01	1.072456e-01	1.072456e-01	1.072456e-01	1.072456e-01	1.072456e-01	1.072456e-01	1.072456e-01	1.072456e-01	1.072456e-01	1.072456e-01	1.072456e-01	1.072456e-01	1.072456e-01	1.072456e-01	1.072456e-01	1.072456e-01	1.072456e-01	1.072456e-01	1.072456e-01	1.072456e-01	1.072456e-01	1.072456e-01	1.072456e-01	1.072456e-01	1.072456e-01	1.072456e-01	1.072456e-01	1.072456e-01	1.072456e-01	1.072456e-01	1.072456e-01	1.072456e-01	1.072456e-01	1.072456e-01	1.072456e-01	1.072456e-01	1.072456e-01	1.072456e-01	1.072456e-01	1.072456e-01	1.072456e-01	1.072456e-01	1.072456e-01	1.072456e-01	
SCALARS Y-Momentum double 1
LOOKUP_TABLE default
-8.150498e-07	-8.150498e-07	1.375193e-06	1.375193e-06	-8.150498e-07	-8.150498e-07	1.375193e-06	1.375193e-06	-8.150489e-07	-8.150489e-07	1.375192e-06	1.375192e-06	-8.150489e-07	-8.150489e-07	1.375192e-06	1.375192e-06	-8.150498e-07	-8.150498e-07	1.375193e-06	1.375193e-06	-8.150498e-07	-8.150498e-07	1.375193e-06	1.375193e-06	-8.150498e-07	-8.150498e-07	1.375193e-06	1.375193e-06	-8.150498e-07	-8.150498e-07	1.375193e-06	1.375193e-06	-8.150498e-07	-8.150498e-07	1.375193e-06	1.375193e-06	-8.150498e-07	-8.150498e-07	1.375193e-06	1.375193e-06	-8.150489e-07	-8.150489e-07	1.375192e-06	1.375192e-06	-8.150489e-07	-8.150489e-07	1.375192e-06	1.375192e-06	-8.150498e-07	-8.150498e-07	1.375193e-06	1.375193e-06	-8.150498e-07	-8.150498e-07	1.375193e-06	1.375193e-06	
SCALARS Z-Momentum double 1
LOOKUP_TABLE default
-3.277410e-12	3.277410e-12	8.669782e-12	-8.669781e-12	-3.277409e-12	3.277408e-12	8.669782e-12	-8.669780e-12	-3.277407e-12	3.277406e-12	8.669778e-12	-8.669777e-12	-3.277407e-12	3.277406e-12	8.669776e-12	-8.669776e-12	-3.277412e-12	3.277410e-12	8.669782e-12	-8.669781e-12	-3.277412e-12	3.277410e-12	8.669782e-12	-8.669781e-12	-3.277414e-12	3.277413e-12	8.669780e-12	-8.669778e-12	-3.277412e-12	3.277412e-12	8.669778e-12	-8.669778e-12	-3.277413e-12	3.277411e-12	8.669784e-12	-8.669782e-12	-3.277411e-12	3.277412e-12	8.669782e-12	-8.669782e-12	-3.277409e-12	3.277408e-12	8.669778e-12	-8.669775e-12	-3.277409e-12	3.277409e-12	8.669776e-12	-8.669775e-12	-3.277410e-12	3.277409e-12	8.669782e-12	-8.669781e-12	-3.277411e-12	3.277409e-12	8.669783e-12	-8.669782e-12	
SCALARS Energy double 1
LOOKUP_TABLE default
3.298421e+02	3.298421e+02	3.298421e+02	3.298421e+02	3.298421e+02	3.298421e+02	3.298421e+02	3.298421e+02	3.298421e+02	3.298421e+02	3.298421e+02	3.298421e+02	3.298421e+02	3.298421e+02	3.298421e+02	3.298421e+02	3.298421e+02	3.298421e+02	3.298421e+02	3.298421e+02	3.298421e+02	3.298421e+02	3.298421e+02	3.298421e+02	3.298421e+02	3.298421e+02	3.298421e+02	3.298421e+02	3.298421e+02	3.298421e+02	3.298421e+02	3.298421e+02	3.298421e+02	3.298421e+02	3.298421e+02	3.298421e+02	3.298421e+02	3.298421e+02	3.298421e+02	3.298421e+02	3.298421e+02	3.298421e+02	3.298421e+02	3.298421e+02	3.298421e+02	3.298421e+02	3.298421e+02	3.298421e+02	3.298421e+02	3.298421e+02	3.298421e+02	3.298421e+02	3.298421e+02	3.298421e+02	3.298421e+02	3.298421e+02	
SCALARS Pressure double 1
LOOKUP_TABLE default
1.304786e+02	1.304786e+02	1.304786e+02	1.304786e+02	1.304786e+02	1.304786e+02	1.304786e+02	1.304786e+02	1.304786e+02	1.304786e+02	1.304786e+02	1.304786e+02	1.304786e+02	1.304786e+02	1.304786e+02	1.304786e+02	1.304786e+02	1.304786e+02	1.304786e+02	1.304786e+02	1.304786e+02	1.304786e+02	1.304786e+02	1.304786e+02	1.304786e+02	1.304786e+02	1.304786e+02	1.304786e+02	1.304786e+02	1.304786e+02	1.304786e+02	1.304786e+02	1.304786e+02	1.304786e+02	1.304786e+02	1.304786e+02	1.304786e+02	1.304786e+02	1.304786e+02	1.304786e+02	1.304786e+02	1.304786e+02	1.304786e+02	1.304786e+02	1.304786e+02	1.304786e+02	1.304786e+02	1.304786e+02	1.304786e+02	1.304786e+02	1.304786e+02	1.304786e+02	1.304786e+02	1.304786e+02	1.304786e+02	1.304786e+02	
SCALARS Temperature double 1
LOOKUP_TABLE default
2.881535e+02	2.881535e+02	2.881535e+02	2.881535e+02	2.881535e+02	2.881535e+02	2.881535e+02	2.881535e+02	2.881535e+02	2.881535e+02	2.881535e+02	2.881535e+02	2.881535e+02	2.881535e+02	2.881535e+02	2.881535e+02	2.881535e+02	2.881535e+02	2.881535e+02	2.881535e+02	2.881535e+02	2.881535e+02	2.881535e+02	2.881535e+02	2.881535e+02	2.881535e+02	2.881535e+02	2.881535e+02	2.881535e+02	2.881535e+02	2.881535e+02	2.881535e+02	2.881535e+02	2.881535e+02	2.881535e+02	2.881535e+02	2.881535e+02	2.881535e+02	2.881535e+02	2.881535e+02	2.881535e+02	2.881535e+02	2.881535e+02	2.881535e+02	2.881535e+02	2.881535e+02	2.881535e+02	2.881535e+02	2.881535e+02	2.881535e+02	2.881535e+02	2.881535e+02	2.881535e+02	2.881535e+02	2.881535e+02	2.881535e+02	
SCALARS Pressure_Coefficient double 1
LOOKUP_TABLE default
1.004703e+03	1.004703e+03	1.004703e+03	1.004703e+03	1.004703e+03	1.004703e+03	1.004703e+03	1.004703e+03	1.004703e+03	1.004703e+03	1.004703e+03	1.004703e+03	1.004703e+03	1.004703e+03	1.004703e+03	1.004703e+03	1.004703e+03	1.004703e+03	1.004703e+03	1.004703e+03	1.004703e+03	1.004703e+03	1.004703e+03	1.004703e+03	1.004703e+03	1.004703e+03	1.004703e+03	1.004703e+03	1.004703e+03	1.004703e+03	1.004703e+03	1.004703e+03	1.004703e+03	1.004703e+03	1.004703e+03	1.004703e+03	1.004703e+03	1.004703e+03	1.004703e+03	1.004703e+03	1.004703e+03	1.004703e+03	1.004703e+03	1.004703e+03	1.004703e+03	1.004703e+03	1.004703e+03	1.004703e+03	1.004703e+03	1.004703e+03	1.004703e+03	1.004703e+03	1.004703e+03	1.004703e+03	1.004703e+03	1.004703e+03	
SCALARS Mach double 1
LOOKUP_TABLE default
1.997898e-01	1.997898e-01	1.997898e-01	1.997898e-01	1.997898e-01	1.997898e-01	1.997898e-01	1.997898e-01	1.997898e-01	1.997898e-01	1.997898e-01	1.997898e-01	1.997898e-01	1.997898e-01	1.997898e-01	1.997898e-01	1.997898e-01	1.997898e-01	1.997898e-01	1.997898e-01	1.997898e-01	1.997898e-01	1.997898e-01	1.997898e-01	1.997898e-01	1.997898e-01	1.997898e-01	1.997898e-01	1.997898e-01	1.997898e-01	1.997898e-01	1.997898e-01	1.997898e-01	1.997898e-01	1.997898e-01	1.997898e-01	1.997898e-01	1.997898e-01	1.997898e-01	1.997898e-01	1.997898e-01	1.997898e-01	1.997898e-01	1.997898e-01	1.997898e-01	1.997898e-01	1.997898e-01	1.997898e-01	1.997898e-01	1.997898e-01	1.997898e-01	1.997898e-01	1.997898e-01	1.997898e-01	1.997898e-01	1.997898e-01	